
Host: YZCUbuntu

Timers On : Tue Mar 31 02:45:10 2026
Timers Off: Tue Mar 31 02:45:13 2026

Wall Time:        3.11 seconds

                                                       Time (seconds)
Module                                       User      System        Wall        Calls

--------------------------------------------------------------------------------------

**************************************************************************************
